# vtk DataFile Version 5.1
vtk output
ASCII
DATASET POLYDATA
POINTS 74 float
47.6948 81.3946 14.771 47.6464 81.5473 14.8091 47.4483 82.3432 14.9575 
47.3951 82.6766 15.0199 47.264 83.1836 15.1524 47.1515 83.8481 15.3189 
47.1153 84.006 15.3699 47.0722 84.3087 15.4591 47.0387 84.4421 15.524 
46.9295 84.7026 15.6841 46.8996 84.7802 15.718 46.8417 84.857 15.7458 
46.6194 85.1542 15.897 46.5688 85.2172 15.929 46.2781 85.6472 16.1274 
46.2626 85.6717 16.1379 46.1107 85.8994 16.1896 45.7102 86.5155 16.4443 
45.6437 86.6538 16.5096 45.3369 87.2081 16.724 45.3015 87.268 16.7527 
45.2211 87.4213 16.8213 45.0724 87.7238 16.9443 44.8398 88.1392 17.1015 
44.6661 88.5424 17.2635 44.6206 88.6383 17.3056 44.6047 88.6767 17.3211 
44.3316 89.3097 17.5893 44.328 89.319 17.5947 44.193 89.6977 17.7635 
44.1507 89.8014 17.8067 44.0303 90.1077 17.9583 43.9954 90.2111 18.0047 
43.8842 90.5476 18.1351 43.847 90.65 18.1637 43.7516 90.8777 18.2378 
43.7457 90.8899 18.2398 43.6966 91.0079 18.259 43.526 91.883 18.4057 
43.5233 91.8982 18.4066 43.3534 92.8102 18.5354 43.3171 93.0435 18.5482 
43.3008 93.1419 18.5574 43.2734 93.3845 18.593 43.2749 93.7427 18.6566 
43.2756 93.7676 18.6625 43.2714 94.1036 18.7056 43.2935 94.5095 18.772 
43.2765 95.0968 18.8909 43.3501 95.5052 18.9729 43.3519 95.5342 18.9769 
43.3675 96.4498 19.1821 43.3688 96.5014 19.1897 43.3689 96.5147 19.1922 
43.3909 97.2951 19.3671 43.39 97.6522 19.4672 43.3895 97.6684 19.4703 
43.4528 98.4886 19.6827 43.4845 99.1257 19.8225 43.462 99.6664 19.9204 
43.4622 99.7042 19.925 43.4735 100.319 19.9881 43.4947 100.654 20.0478 
43.4507 100.845 20.0325 43.3828 101.721 20.1181 43.3556 101.803 20.112 
43.2482 102.228 20.1377 43.1615 102.52 20.1636 43.1117 102.67 20.182 
43.088 102.765 20.2007 43.083 102.769 20.2036 42.6407 103.089 20.416 
51.2289 79.7721 13.3853 41.0409 107.902 20.7442 
METADATA
INFORMATION 2
NAME L2_NORM_RANGE LOCATION vtkDataArray
DATA 2 95.4885 117.293 
NAME L2_NORM_FINITE_RANGE LOCATION vtkDataArray
DATA 2 95.4885 117.293 

LINES 2 74
OFFSETS vtktypeint64
0 74 
CONNECTIVITY vtktypeint64
73 71 70 69 68 67 66 65 64 
63 62 61 60 59 58 57 56 55 
54 53 52 51 50 49 48 47 46 
45 44 43 42 41 40 39 38 37 
36 35 34 33 32 31 30 29 28 
27 26 25 24 23 22 21 20 19 
18 17 16 15 14 13 12 11 10 
9 8 7 6 5 4 3 2 1 
0 72 
POINT_DATA 74
FIELD FieldData 1
MaximumInscribedSphereRadius 1 74 double
4.1281978406 4.206158979 4.6220977049 4.8010253167 5.0730323245 5.4353094975 5.5231199811 5.6788556789 5.7343479137 
5.8241402994 5.8421678283 5.8407887787 5.8514561159 5.849617058 5.8523433285 5.8530534073 5.8548244935 5.8555597368 
5.8556361825 5.8772914564 5.8813008179 5.8863071867 5.9022793155 5.9406107585 5.9729594526 5.9815510429 5.9839195952 
6.0481789985 6.0494958418 6.0804073047 6.0906416946 6.1298526157 6.1417011551 6.1774583411 6.1857586493 6.1977582664 
6.1977103933 6.1940174784 6.1164062904 6.1147844919 6.0176091297 5.9957735025 5.9851691756 5.956066356 5.9105322149 
5.9072100973 5.8524276684 5.7911416811 5.7189059534 5.6538426179 5.6505429474 5.5544422435 5.5503294987 5.5488091838 
5.4923173593 5.483490704 5.4830746934 5.4663777014 5.4880515236 5.5044722706 5.505288166 5.5394782077 5.5711618947 
5.5679288344 5.6204594846 5.6141521696 5.5655785441 5.5349918351 5.5192793051 5.5017208309 5.4967097355 5.0826950417 
4.1281978406 5.0826950417 
