# vtk DataFile Version 5.1
vtk output
ASCII
DATASET POLYDATA
POINTS 7101 float
141 274 122 142 270 127 142 270 128 
142 271 125 142 271 126 142 272 124 
142 273 123 142 275 122 142 276 121 
142 277 120 142 278 119 142 282 164 
143 258 143 143 258 150 143 259 144 
143 259 145 143 259 146 143 259 149 
143 260 147 143 260 148 143 268 130 
143 268 131 143 269 129 143 279 118 
143 280 118 143 281 117 143 282 116 
143 282 162 143 282 163 143 282 165 
143 282 166 143 283 116 143 284 115 
143 285 115 143 286 114 144 257 152 
144 257 153 144 257 154 144 258 142 
144 258 151 144 268 132 144 269 139 
144 269 140 144 269 141 144 269 142 
144 269 143 144 282 167 144 282 169 
144 283 170 144 287 114 145 256 155 
145 256 156 145 256 157 145 256 158 
145 256 159 145 256 160 145 256 164 
145 257 141 145 258 140 145 259 139 
145 261 138 145 262 137 145 267 133 
145 267 134 145 268 138 145 268 144 
145 268 145 145 269 146 145 269 147 
145 270 151 145 281 168 145 288 114 
145 289 112 145 289 113 145 289 115 
146 255 165 146 256 161 146 256 162 
146 256 163 146 257 141 146 260 139 
146 263 137 146 264 136 146 265 135 
146 266 135 146 266 136 146 267 137 
146 268 148 146 269 149 146 269 150 
146 270 152 146 275 179 146 275 180 
146 279 165 146 280 166 146 281 167 
146 281 169 146 290 111 146 290 116 
146 291 110 146 291 116 146 292 109 
146 293 109 147 255 166 147 256 142 
147 268 137 147 275 181 147 275 185 
147 281 170 147 291 163 147 291 164 
147 292 116 147 293 117 147 294 108 
147 295 106 147 295 107 148 255 143 
148 255 167 148 268 137 148 275 182 
148 275 183 148 275 184 148 275 186 
148 275 187 148 275 192 148 282 171 
148 282 172 148 282 173 148 291 166 
148 291 167 148 291 168 148 292 165 
148 294 118 148 296 105 148 297 104 
148 299 102 148 300 101 148 301 101 
148 302 101 149 252 145 149 253 144 
149 254 144 149 255 166 149 268 137 
149 274 188 149 274 189 149 274 191 
149 278 215 149 278 216 149 283 174 
149 292 169 149 292 171 149 292 172 
149 292 173 149 292 174 149 292 176 
149 292 177 149 292 178 149 295 119 
149 295 120 149 295 121 149 296 122 
149 298 104 149 299 103 149 303 100 
149 304 99 150 253 162 150 253 163 
150 254 164 150 254 165 150 268 138 
150 274 190 150 279 217 150 279 218 
150 280 219 150 284 175 150 291 175 
150 293 170 150 294 170 150 297 122 
150 298 123 150 305 98 150 306 98 
151 269 139 151 273 191 151 280 221 
151 281 220 151 282 221 151 284 175 
151 290 175 151 295 170 151 299 124 
151 299 125 151 300 126 151 300 127 
151 307 97 152 269 138 152 272 158 
152 272 159 152 272 192 152 283 221 
152 284 175 152 284 222 152 285 223 
152 289 175 152 296 170 152 301 128 
152 301 129 152 302 130 152 303 131 
152 308 97 153 269 138 153 272 192 
153 273 160 153 273 161 153 284 175 
153 285 224 153 286 225 153 288 175 
153 296 170 153 299 191 153 304 132 
153 304 133 153 309 96 154 270 139 
154 270 191 154 271 192 154 271 193 
154 271 194 154 274 162 154 274 163 
154 285 175 154 286 174 154 287 174 
154 287 226 154 287 227 154 297 169 
154 300 191 154 305 134 154 306 135 
154 306 136 154 310 96 154 311 96 
155 270 139 155 271 195 155 275 164 
155 285 172 155 285 173 155 288 228 
155 288 229 155 297 168 155 301 192 
155 307 137 155 307 139 155 312 96 
156 271 140 156 272 196 156 272 197 
156 272 198 156 276 165 156 277 166 
156 284 171 156 289 230 156 289 231 
156 289 232 156 298 168 156 299 167 
156 302 192 156 303 193 156 305 158 
156 305 159 156 308 106 156 308 107 
156 308 138 156 308 140 156 309 109 
156 313 97 157 272 141 157 272 199 
157 272 200 157 278 167 157 283 170 
157 290 233 157 298 166 157 299 165 
157 304 158 157 304 159 157 304 193 
157 305 157 157 305 160 157 306 158 
157 306 159 157 308 141 157 308 142 
157 308 143 157 309 108 157 309 110 
157 309 111 158 273 142 158 273 201 
158 273 202 158 279 168 158 280 168 
158 282 169 158 290 234 158 299 164 
158 300 163 158 301 162 158 302 160 
158 302 161 158 303 158 158 304 157 
158 304 159 158 305 157 158 305 159 
158 305 194 158 306 158 158 309 144 
158 309 145 158 310 112 159 273 143 
159 274 203 159 274 204 159 281 168 
159 282 167 159 291 235 159 291 236 
159 303 158 159 303 159 159 304 157 
159 304 159 159 305 158 159 305 195 
159 305 196 159 305 198 159 306 199 
159 306 200 159 310 121 159 310 146 
159 311 113 159 311 115 159 311 117 
159 311 118 159 311 146 159 314 112 
159 315 111 160 273 144 160 273 148 
160 274 147 160 274 205 160 282 166 
160 292 237 160 293 238 160 294 239 
160 302 216 160 304 158 160 306 197 
160 306 201 160 306 202 160 307 204 
160 309 122 160 310 119 160 310 120 
160 311 116 160 312 114 160 312 147 
160 313 113 160 315 110 160 316 109 
161 271 148 161 272 148 161 274 145 
161 274 278 161 275 146 161 275 206 
161 275 279 161 276 147 161 276 280 
161 281 163 161 281 164 161 281 165 
161 283 167 161 284 167 161 295 240 
161 295 241 161 302 215 161 303 157 
161 307 203 161 307 208 161 308 205 
161 308 208 161 309 123 161 309 124 
161 313 148 161 314 148 161 316 102 
161 316 103 161 316 104 161 316 105 
161 317 108 162 253 287 162 254 288 
162 255 289 162 270 148 162 276 207 
162 276 281 162 276 282 162 277 147 
162 277 283 162 278 160 162 280 162 
162 283 277 162 284 278 162 285 168 
162 296 242 162 297 243 162 303 155 
162 303 156 162 303 213 162 303 214 
162 306 209 162 309 125 162 309 126 
162 309 127 162 309 205 162 309 209 
162 314 149 162 314 150 162 314 151 
162 315 147 162 317 106 162 317 107 
163 256 290 163 257 291 163 258 291 
163 259 292 163 260 293 163 269 149 
163 269 150 163 269 151 163 276 208 
163 276 209 163 278 148 163 278 284 
163 278 285 163 279 161 163 279 286 
163 279 287 163 285 279 163 285 280 
163 286 169 163 286 281 163 287 169 
163 296 244 163 297 245 163 298 245 
163 299 246 163 302 212 163 303 154 
163 303 211 163 304 209 163 305 209 
163 307 208 163 308 130 163 308 208 
163 309 128 163 309 129 163 309 206 
163 309 207 163 310 129 163 310 204 
163 310 210 163 310 211 163 310 212 
163 310 213 163 310 214 163 311 129 
163 311 203 163 311 215 163 311 216 
163 311 217 163 311 218 163 312 128 
163 313 128 163 314 128 163 314 152 
163 315 145 163 315 146 163 316 143 
163 316 144 164 258 300 164 259 301 
164 260 302 164 261 293 164 261 302 
164 262 294 164 263 295 164 264 296 
164 265 297 164 265 302 164 266 302 
164 267 250 164 267 251 164 268 162 
164 268 252 164 269 152 164 269 153 
164 269 154 164 269 160 164 270 158 
164 270 159 164 277 210 164 279 148 
164 279 149 164 280 150 164 280 288 
164 281 289 164 282 136 164 282 137 
164 287 282 164 288 169 164 288 282 
164 298 189 164 300 208 164 300 247 
164 301 212 164 301 213 164 302 209 
164 303 153 164 303 210 164 307 133 
164 308 131 164 308 132 164 310 209 
164 312 219 164 312 220 164 312 221 
164 315 127 164 315 153 164 315 154 
164 316 125 164 316 126 164 317 124 
165 262 303 165 263 303 165 264 303 
165 266 298 165 267 163 165 267 164 
165 267 165 165 267 166 165 267 299 
165 267 301 165 268 201 165 268 202 
165 268 300 165 268 302 165 269 161 
165 269 253 165 269 303 165 270 155 
165 270 156 165 270 157 165 270 254 
165 278 211 165 280 145 165 280 146 
165 280 147 165 281 138 165 281 139 
165 281 140 165 281 141 165 281 142 
165 281 143 165 281 151 165 281 290 
165 282 291 165 289 170 165 289 282 
165 290 170 165 290 282 165 297 189 
165 300 214 165 301 208 165 301 211 
165 301 248 165 302 152 165 304 209 
165 307 134 165 307 136 165 311 209 
165 312 222 165 312 223 165 315 155 
166 267 167 166 269 203 166 269 204 
166 269 205 166 270 304 166 271 254 
166 271 304 166 279 212 166 280 144 
166 282 152 166 282 153 166 283 292 
166 284 293 166 284 294 166 285 295 
166 291 169 166 291 283 166 291 284 
166 291 285 166 297 189 166 299 216 
166 300 215 166 301 150 166 301 151 
166 302 209 166 302 210 166 302 249 
166 303 210 166 305 139 166 306 137 
166 306 138 166 306 140 166 307 233 
166 308 135 166 312 209 166 313 224 
166 313 225 166 313 226 166 315 155 
166 316 157 167 270 206 167 270 309 
167 271 255 167 271 308 167 272 304 
167 272 307 167 273 306 167 279 213 
167 283 154 167 284 155 167 286 296 
167 286 297 167 287 298 167 292 169 
167 292 286 167 293 287 167 297 189 
167 298 217 167 299 148 167 300 149 
167 302 152 167 303 250 167 304 251 
167 305 232 167 306 232 167 307 141 
167 308 144 167 308 234 167 309 235 
167 313 209 167 313 227 167 316 156 
167 317 158 167 318 158 168 270 207 
168 270 208 168 270 310 168 270 311 
168 272 256 168 273 305 168 274 304 
168 280 214 168 285 155 168 285 156 
168 286 157 168 287 158 168 288 299 
168 293 169 168 294 288 168 295 289 
168 297 189 168 298 148 168 298 218 
168 299 236 168 301 232 168 301 233 
168 302 232 168 303 153 168 303 232 
168 304 232 168 305 252 168 305 253 
168 305 254 168 307 142 168 307 143 
168 308 145 168 308 148 168 310 235 
168 312 228 168 312 229 168 312 230 
168 312 233 168 312 234 168 312 235 
168 312 237 168 312 238 168 313 231 
168 313 232 168 314 209 169 269 312 
169 270 209 169 273 256 169 274 257 
169 275 257 169 275 304 169 276 304 
169 279 258 169 279 259 169 281 215 
169 281 216 169 281 217 169 284 154 
169 288 159 169 288 300 169 289 160 
169 289 161 169 289 300 169 290 299 
169 293 168 169 296 290 169 297 189 
169 297 231 169 297 232 169 298 231 
169 298 233 169 298 234 169 298 235 
169 299 231 169 300 231 169 300 235 
169 301 234 169 304 154 169 306 153 
169 306 255 169 306 256 169 306 257 
169 307 152 169 308 146 169 308 147 
169 308 149 169 308 150 169 308 151 
169 311 236 169 315 207 169 315 208 
169 316 206 169 323 105 169 323 106 
170 269 313 170 269 314 170 269 315 
170 269 316 170 271 210 170 271 211 
170 272 212 170 276 256 170 277 305 
170 278 305 170 279 257 170 282 218 
170 284 153 170 286 300 170 287 301 
170 288 302 170 288 303 170 288 304 
170 290 162 170 291 163 170 291 164 
170 291 299 170 292 165 170 292 297 
170 292 298 170 293 166 170 293 167 
170 293 296 170 294 169 170 294 170 
170 296 230 170 296 291 170 297 189 
170 305 154 170 305 155 170 306 258 
170 316 209 170 317 203 170 317 204 
170 317 205 170 317 210 170 323 107 
[...]
POINT_DATA 7101
FIELD FieldData 2
Radius 1 7101 double
0.5 0.95901620388 0.5 0.95901620388 0.95901620388 0.95901620388 0.818359375 0.95901620388 0.95901620388 
0.95901620388 0.95901620388 0.5 0.5 0.5 0.5 0.5 0.5 0.5 
0.5 0.5 0.95901620388 0.5 0.95901620388 0.818359375 0.818359375 0.818359375 0.818359375 
0.5 0.5 0.5 0.5 0.818359375 0.95901620388 0.818359375 0.818359375 0.5 
0.5 0.5 0.5 0.5 0.5 0.5 0.5 0.5 0.5 
0.5 0.5 0.5 0.5 1.1573349237 0.5 0.5 0.5 0.5 
0.5 0.5 0.5 0.818359375 0.95901620388 0.95901620388 0.5 0.5 0.5 
0.5 0.5 0.5 0.5 0.5 0.5 0.5 0.5 1.1573349237 
0.818359375 0.818359375 0.818359375 0.5 0.5 0.5 0.5 0.95901620388 0.818359375 
0.5 0.5 0.5 0.5 0.5 0.818359375 0.5 0.5 0.5 
0.5 0.5 0.5 0.5 0.5 0.5 0.5 0.5 0.818359375 
0.5 0.818359375 0.5 0.5 0.5 0.95901620388 0.5 0.5 0.5 
0.5 0.5 0.5 0.818359375 0.818359375 0.5 0.5 0.5 0.5 
0.5 0.5 0.5 0.5 0.5 0.5 0.5 0.5 0.5 
0.5 0.5 0.5 0.5 0.818359375 0.5 0.5 0.5 0.5 
0.5 0.5 0.5 0.5 0.5 0.5 0.5 0.5 0.5 
0.5 0.5 0.5 0.5 0.5 0.5 0.5 0.818359375 0.818359375 
0.818359375 0.818359375 0.818359375 0.818359375 0.5 0.5 0.5 0.5 0.5 
0.5 0.5 0.5 0.5 0.5 0.5 0.5 0.5 0.5 
0.5 0.5 0.5 0.5 0.5 0.818359375 0.5 0.5 0.5 
0.5 0.5 0.5 0.5 0.5 0.5 0.5 0.5 0.5 
0.5 0.5 0.5 0.5 0.5 0.5 0.5 0.5 0.5 
0.818359375 0.5 0.5 0.5 0.5 0.5 0.5 0.5 0.5 
0.5 0.5 0.5 0.5 0.5 0.5 0.5 0.818359375 0.5 
0.5 0.5 0.5 0.5 0.5 0.5 0.5 0.5 0.5 
0.5 0.818359375 0.818359375 0.818359375 0.5 0.5 0.5 0.5 0.5 
0.5 0.5 0.5 0.5 0.5 0.5 0.5 0.5 0.5 
0.5 0.95901620388 0.5 0.5 0.818359375 0.5 0.5 0.5 0.5 
0.5 0.5 0.5 0.5 0.818359375 0.818359375 0.5 0.5 0.5 
0.5 0.5 0.5 0.5 0.818359375 0.818359375 0.5 0.5 0.5 
0.5 0.5 0.5 0.5 0.5 0.5 0.5 0.5 0.818359375 
0.818359375 0.5 0.5 0.5 0.818359375 0.5 0.5 0.5 0.5 
0.5 0.5 0.818359375 0.5 0.5 0.5 0.5 0.5 0.5 
0.5 0.818359375 0.5 0.818359375 0.818359375 0.818359375 0.818359375 0.5 0.818359375 
0.5 0.5 0.5 0.5 0.5 0.5 0.5 0.5 0.5 
0.5 0.5 0.5 0.818359375 0.5 0.95901620388 0.5 0.5 0.95901620388 
0.95901620388 0.5 0.5 0.5 0.5 0.5 0.5 0.5 0.5 
0.5 0.5 0.5 0.5 0.5 0.5 0.5 0.5 0.818359375 
0.5 0.5 0.5 0.5 0.95901620388 0.5 0.818359375 0.818359375 0.5 
0.5 0.5 0.5 0.5 0.5 0.5 0.5 0.5 0.5 
0.5 0.5 0.5 0.5 0.5 0.5 0.5 0.5 0.5 
0.5 0.5 1.2607237101 0.5 0.95901620388 0.818359375 0.5 0.5 0.5 
0.5 0.5 0.5 0.5 0.5 0.5 0.5 0.5 0.5 
0.5 0.5 0.5 0.5 0.5 0.5 0.5 0.5 0.5 
0.5 0.5 0.5 0.5 0.5 0.5 0.5 0.5 0.5 
0.5 0.5 0.5 0.5 0.5 0.5 0.5 0.5 0.5 
0.5 0.5 0.5 0.818359375 0.5 0.5 0.5 0.5 0.5 
0.818359375 0.5 0.5 0.5 0.5 0.5 0.5 0.5 0.5 
0.5 0.5 0.818359375 0.818359375 0.5 0.5 0.5 0.5 0.818359375 
0.5 0.5 0.5 0.5 0.5 0.5 0.5 0.5 0.5 
0.5 0.5 0.5 0.5 0.5 0.5 0.5 0.5 0.5 
0.5 0.5 0.5 0.5 0.818359375 0.5 0.5 0.818359375 0.5 
0.5 0.5 0.5 0.5 0.5 0.5 0.5 0.5 0.5 
0.5 0.5 0.5 0.5 0.5 0.5 0.5 0.5 0.5 
0.5 0.5 0.5 0.5 0.5 0.5 0.5 0.5 0.5 
0.5 0.5 0.5 0.818359375 0.5 0.5 0.5 0.5 0.5 
0.5 0.5 0.5 0.5 0.5 0.5 0.5 0.5 0.5 
0.818359375 0.5 0.5 0.5 0.5 0.5 0.5 0.5 0.5 
0.5 0.5 0.5 0.5 0.5 0.5 0.5 0.5 0.818359375 
0.5 0.818359375 0.5 0.5 0.5 0.5 0.5 0.818359375 0.818359375 
0.5 0.5 0.5 0.5 0.5 0.5 0.5 0.5 0.5 
0.5 0.5 0.5 0.5 0.5 0.5 0.5 0.5 0.5 
0.5 0.5 0.5 0.5 0.5 0.5 0.5 0.5 0.5 
0.5 0.5 0.5 0.5 0.5 0.5 0.5 0.5 0.5 
0.5 0.5 0.5 0.5 0.5 0.5 0.5 0.5 0.5 
0.5 0.5 0.5 0.95901620388 0.5 0.5 0.5 0.5 0.5 
0.5 0.5 0.5 0.5 0.5 0.5 0.5 0.5 0.5 
0.5 0.5 0.5 0.5 0.5 0.5 0.818359375 0.5 0.5 
0.5 0.5 0.5 0.5 0.5 0.5 0.5 0.5 0.818359375 
0.5 0.5 0.5 0.818359375 0.5 0.5 0.5 0.5 0.5 
0.5 0.5 0.5 0.818359375 0.5 0.5 0.5 0.5 0.5 
0.5 0.5 0.5 0.818359375 0.5 0.5 0.5 0.5 0.5 
0.5 0.5 0.5 0.5 0.5 0.5 0.5 0.818359375 0.818359375 
0.5 0.5 0.5 0.5 0.5 0.5 0.5 0.5 0.5 
0.5 0.5 0.5 0.5 0.5 0.5 0.5 0.5 0.5 
0.5 0.5 0.818359375 0.818359375 0.5 0.5 0.5 0.5 0.5 
0.5 0.5 0.5 0.5 0.5 0.5 0.5 0.5 0.5 
0.5 0.5 0.818359375 0.818359375 0.5 0.5 0.5 0.5 0.5 
0.5 0.5 0.5 0.5 0.5 0.5 0.818359375 0.5 0.5 
0.5 0.5 0.5 0.5 0.5 0.5 0.5 0.5 0.5 
0.5 0.5 0.5 0.5 0.5 0.5 0.5 0.5 0.95901620388 
0.818359375 0.5 0.5 0.818359375 0.5 0.5 0.5 0.818359375 0.5 
0.818359375 0.818359375 0.5 0.5 0.5 0.5 0.5 0.818359375 0.818359375 
0.5 0.818359375 0.818359375 0.818359375 0.5 0.5 0.5 0.5 0.818359375 
0.5 0.5 0.5 0.5 0.5 0.5 0.5 0.5 0.818359375 
0.5 0.5 0.5 0.5 0.5 0.5 0.5 0.5 0.5 
0.5 0.5 0.5 0.5 0.818359375 0.5 0.818359375 0.5 0.95901620388 
0.5 0.818359375 0.5 0.5 0.5 0.818359375 0.5 0.818359375 0.95901620388 
0.95901620388 0.5 0.5 1.2607237101 1 0.5 0.5 0.5 0.5 
0.5 0.5 0.5 0.5 0.5 0.5 0.5 0.5 0.5 
0.5 0.5 0.5 0.5 0.95901620388 0.5 0.5 0.818359375 0.5 
0.5 0.5 0.5 0.95901620388 0.5 0.5 0.5 0.5 0.5 
0.5 0.5 0.5 0.5 0.5 0.5 0.818359375 0.5 0.818359375 
0.5 0.818359375 0.5 0.5 0.5 0.5 0.95901620388 0.5 0.5 
0.5 0.818359375 0.5 0.5 0.5 0.5 0.5 0.5 0.5 
0.5 0.5 0.5 0.5 0.5 0.5 0.5 0.5 0.5 
0.818359375 0.818359375 0.95901620388 0.5 0.5 0.818359375 0.95901620388 0.818359375 0.5 
0.5 0.5 0.5 0.5 0.5 0.5 0.5 0.5 0.818359375 
0.5 0.5 0.818359375 0.5 0.5 0.5 0.5 0.5 0.5 
0.818359375 0.818359375 0.818359375 0.818359375 0.5 0.5 0.818359375 0.5 0.818359375 
0.5 0.5 0.5 0.5 0.5 0.5 0.5 0.5 0.818359375 
0.5 0.5 0.5 0.95901620388 0.818359375 0.5 0.5 0.5 0.5 
0.5 0.5 0.5 0.5 0.5 0.5 0.5 0.5 0.5 
0.5 0.5 0.5 0.5 0.5 0.818359375 0.818359375 0.5 0.5 
0.5 0.5 0.818359375 0.818359375 0.818359375 0.5 1.1573349237 0.5 0.5 
0.5 0.5 0.5 0.5 0.5 0.5 0.5 0.5 0.5 
0.5 0.818359375 0.5 0.5 0.5 0.5 0.5 0.5 0.5 
0.818359375 0.818359375 0.5 0.5 0.5 0.5 0.5 0.5 0.5 
0.5 0.5 0.5 0.95901620388 0.5 0.5 0.5 0.818359375 0.5 
0.5 0.5 0.5 0.5 0.5 0.5 0.5 0.818359375 0.5 
0.5 0.5 0.5 0.5 0.5 0.818359375 0.818359375 0.5 0.818359375 
0.5 0.5 0.818359375 0.818359375 0.5 0.818359375 0.5 0.5 0.5 
0.5 0.818359375 0.5 0.5 0.5 0.818359375 0.5 0.5 0.5 
0.95901620388 0.5 0.5 0.5 0.5 0.5 0.5 0.818359375 0.818359375 
0.5 0.5 0.5 0.5 0.5 0.5 0.5 0.5 0.5 
0.5 0.5 0.5 0.95901620388 0.5 0.95901620388 0.5 0.5 0.5 
0.5 0.818359375 0.818359375 0.818359375 0.818359375 0.818359375 0.5 0.5 0.5 
0.5 0.5 0.5 0.5 0.5 0.5 0.5 0.5 0.5 
0.5 0.818359375 0.5 0.95901620388 0.5 0.5 0.5 0.5 0.5 
0.5 0.5 0.818359375 0.818359375 0.818359375 0.5 0.5 0.5 0.5 
0.5 0.5 0.95901620388 0.5 0.5 0.5 0.5 0.5 0.5 
0.5 0.5 0.5 0.5 0.5 0.5 0.818359375 0.5 0.5 
0.5 0.5 0.5 0.95901620388 0.5 0.5 0.5 0.5 0.5 
0.5 0.5 0.5 0.5 0.818359375 0.818359375 0.818359375 0.5 0.5 
0.5 0.5 0.5 0.818359375 0.5 0.5 0.5 0.5 0.5 
0.5 0.5 0.5 0.5 0.818359375 0.5 0.5 0.5 0.5 
0.5 0.5 0.818359375 0.5 0.5 0.5 0.5 0.5 0.5 
0.5 0.5 0.5 0.5 0.5 0.5 0.818359375 0.5 0.5 
0.5 0.5 0.5 0.5 0.5 0.5 0.5 0.5 0.5 
0.5 0.5 0.5 0.5 0.5 0.5 0.818359375 0.5 0.5 
0.818359375 0.5 0.5 0.5 0.5 0.5 0.818359375 0.5 0.5 
0.5 0.5 0.818359375 0.5 0.5 0.5 0.818359375 0.818359375 0.818359375 
0.818359375 0.818359375 0.818359375 0.5 0.5 0.5 0.5 0.5 0.5 
0.5 0.5 0.5 0.5 0.5 0.5 0.5 0.818359375 0.5 
0.5 0.5 0.5 0.5 0.5 0.5 0.818359375 0.818359375 0.818359375 
0.5 0.5 0.5 0.818359375 0.818359375 0.818359375 0.5 0.818359375 0.5 
0.5 0.5 0.5 0.818359375 0.818359375 0.5 0.5 0.5 0.5 
0.5 0.5 0.5 0.5 0.5 0.5 0.5 0.5 0.5 
0.5 0.5 0.5 0.5 0.5 0.5 0.5 0.5 0.5 
0.5 0.818359375 0.818359375 0.818359375 0.5 0.5 0.5 0.5 0.5 
0.5 0.5 0.818359375 0.5 0.818359375 0.818359375 0.5 0.818359375 0.818359375 
0.5 0.5 0.5 0.5 0.5 0.5 0.5 0.5 0.5 
0.5 0.5 0.5 0.5 0.5 0.5 0.5 0.5 0.5 
0.5 0.5 0.5 0.5 0.5 0.818359375 0.5 0.5 0.5 
0.5 0.5 0.818359375 0.5 0.5 0.5 0.5 0.5 0.5 
0.5 0.5 0.5 0.5 0.5 0.5 0.5 0.5 0.5 
0.5 0.5 0.5 0.5 0.5 0.5 0.5 0.5 0.5 
0.5 0.5 0.5 0.5 0.5 0.5 0.5 0.5 0.5 
0.5 0.5 0.818359375 0.5 0.5 0.95901620388 0.5 0.5 0.5 
0.5 0.5 0.5 0.818359375 0.5 0.5 0.5 0.5 0.5 
0.5 0.5 0.5 0.5 0.5 0.5 0.5 0.5 0.5 
0.5 0.5 0.818359375 0.818359375 0.5 0.818359375 0.5 0.5 0.5 
0.5 0.5 0.5 0.5 0.5 0.5 0.5 0.818359375 0.5 
0.5 0.5 0.5 0.5 0.5 0.5 0.5 0.5 0.5 
0.5 0.5 0.818359375 0.5 0.5 0.5 0.5 0.5 1.2607237101 
0.818359375 0.5 0.818359375 0.5 0.818359375 0.5 0.5 0.5 0.818359375 
0.818359375 0.818359375 0.5 0.5 0.5 0.818359375 0.5 0.5 0.5 
0.5 0.5 0.5 0.818359375 0.5 0.5 0.5 0.5 0.5 
0.5 0.5 0.5 0.5 0.818359375 1.2607237101 0.818359375 0.818359375 0.5 
0.5 0.5 0.818359375 0.5 0.5 0.5 0.5 0.818359375 0.5 
0.5 0.5 0.818359375 0.5 0.5 0.5 0.5 0.5 0.95901620388 
0.818359375 0.95901620388 0.5 0.5 0.95901620388 0.5 0.5 0.5 0.5 
0.5 0.5 0.5 0.5 0.5 0.5 0.5 0.5 0.5 
0.5 0.5 0.5 0.818359375 0.5 0.5 0.5 0.5 0.5 
0.818359375 0.5 0.95901620388 0.5 0.5 0.818359375 0.5 0.5 0.818359375 
0.5 0.5 0.5 0.5 0.95901620388 1 1.2607237101 1 0.5 
0.95901620388 1.2921733856 0.95901620388 0.5 0.818359375 0.95901620388 1.1573349237 0.5 0.5 
0.5 0.5 0.5 0.5 0.5 0.5 0.818359375 0.5 0.5 
0.5 0.5 0.5 0.818359375 0.5 0.95901620388 0.5 0.5 0.818359375 
0.818359375 0.5 0.5 0.5 0.5 0.818359375 0.818359375 0.5 0.818359375 
0.818359375 0.5 0.5 0.5 0.5 0.5 0.5 0.5 0.818359375 
1 0.5 0.5 0.5 0.818359375 0.5 0.5 0.5 0.5 
0.5 0.5 0.5 0.5 0.5 0.5 0.5 0.5 0.5 
0.5 0.5 0.818359375 0.818359375 0.5 0.5 0.5 0.818359375 0.5 
0.818359375 0.5 0.5 0.5 0.5 0.5 1.2921733856 0.5 0.5 
1.2921733856 1.5295176506 0.95901620388 0.5 0.5 0.95901620388 0.818359375 0.5 0.818359375 
0.5 0.5 0.5 0.5 0.5 0.5 0.5 0.5 0.5 
0.5 0.5 0.5 0.5 0.5 0.5 0.5 0.5 0.818359375 
0.5 0.5 0.5 0.5 0.5 0.5 0.818359375 0.5 0.5 
0.5 0.5 0.5 0.95901620388 0.5 1.63671875 0.5 0.95901620388 0.5 
0.5 0.5 0.5 0.5 0.5 0.5 0.5 0.5 0.95901620388 
0.5 0.5 0.5 0.5 0.5 0.5 0.5 0.5 0.5 
0.5 0.5 0.5 0.5 0.5 0.5 0.5 0.5 0.5 
0.5 0.5 0.5 0.5 0.5 0.5 0.5 0.818359375 0.818359375 
0.818359375 0.5 0.5 0.5 0.5 0.5 0.818359375 0.5 0.818359375 
0.5 0.5 0.5 0.5 0.5 0.5 0.5 0.5 0.5 
0.5 0.5 0.5 0.5 0.95901620388 0.5 0.5 0.818359375 0.5 
0.5 0.5 0.818359375 0.818359375 0.818359375 0.95901620388 0.5 0.5 0.5 
0.5 0.5 0.5 0.818359375 0.5 0.5 0.5 0.5 0.5 
0.5 0.5 0.95901620388 0.5 0.5 0.818359375 0.95901620388 0.5 0.5 
0.818359375 0.5 0.5 0.5 0.5 0.5 0.818359375 0.5 0.5 
0.5 0.818359375 0.5 0.95901620388 0.5 0.5 0.5 0.818359375 0.818359375 
0.5 0.5 0.5 0.5 0.5 0.5 0.5 0.818359375 0.5 
0.5 0.5 0.818359375 0.818359375 0.5 0.5 0.5 0.5 0.5 
0.5 0.5 0.5 0.5 0.5 0.5 0.818359375 0.5 0.5 
0.5 0.95901620388 0.5 0.818359375 0.5 0.5 0.5 0.5 0.5 
0.5 0.5 0.5 0.5 0.5 0.95901620388 0.5 0.5 0.818359375 
0.818359375 0.95901620388 0.5 0.5 0.818359375 0.5 0.5 0.5 0.5 
0.5 0.5 0.5 0.5 0.5 0.5 0.5 0.5 0.5 
0.5 0.5 0.5 0.5 0.5 0.5 0.5 0.5 0.5 
0.5 0.5 0.5 0.818359375 0.5 0.5 0.5 0.818359375 0.95901620388 
0.818359375 0.5 0.5 0.5 0.5 0.5 0.5 0.5 0.5 
1 1.2607237101 0.95901620388 0.818359375 0.5 0.5 0.5 0.818359375 0.95901620388 
0.818359375 0.818359375 0.5 0.5 0.5 0.5 0.5 0.5 0.5 
0.5 0.5 0.5 0.818359375 0.5 0.5 0.5 0.5 0.5 
0.5 0.5 0.5 0.5 0.5 0.5 0.5 0.5 0.5 
0.5 0.5 0.5 0.5 0.5 0.5 0.5 0.5 0.5 
0.5 0.5 0.5 0.5 0.5 0.5 0.818359375 0.5 0.5 
0.5 0.5 0.5 0.5 0.5 0.95901620388 0.5 0.5 0.5 
0.5 0.5 0.95901620388 1.1573349237 1.1573349237 0.95901620388 0.818359375 0.5 0.818359375 
0.818359375 0.818359375 0.5 1.7087165117 1.63671875 1.2921733856 0.95901620388 0.818359375 0.818359375 
0.5 1.5 0.5 0.818359375 0.818359375 0.5 0.95901620388 0.818359375 0.818359375 
0.818359375 0.818359375 0.5 0.5 0.5 0.5 0.5 0.5 0.5 
0.818359375 0.5 0.818359375 0.818359375 0.5 0.5 0.5 0.5 0.5 
0.5 0.5 0.5 0.5 0.5 0.5 0.818359375 0.5 0.5 
0.5 0.5 0.5 1.2921733856 0.5 0.5 0.5 0.5 0.5 
0.5 0.95901620388 0.5 0.5 1.5 1.7087165117 1.63671875 1 0.5 
1.2921733856 0.5 0.5 0.5 0.5 0.5 0.5 0.5 0.818359375 
0.5 0.5 0.5 0.5 0.5 0.5 0.5 0.5 0.5 
0.5 0.5 0.5 0.5 0.5 0.5 0.5 0.5 0.818359375 
0.5 0.5 0.5 0.5 0.5 0.5 0.5 0.5 1.2607237101 
0.5 0.5 0.5 0.5 0.5 0.5 0.5 0.5 0.5 
0.5 0.818359375 0.5 1.7087165117 1.63671875 1.63671875 1.2921733856 1.2921733856 0.95901620388 
0.818359375 0.5 0.5 0.5 0.95901620388 0.5 0.5 0.5 0.5 
0.5 0.5 0.5 0.95901620388 0.818359375 0.5 0.5 0.5 0.5 
0.5 0.5 0.5 0.818359375 0.818359375 0.5 0.5 0.818359375 0.5 
0.95901620388 0.5 0.5 0.5 0.5 0.5 0.95901620388 0.95901620388 0.5 
0.5 0.5 0.5 1.2921733856 0.95901620388 0.818359375 0.818359375 0.818359375 0.5 
0.5 0.5 0.5 0.5 0.5 0.5 0.5 0.5 1 
0.95901620388 0.5 0.5 0.5 0.5 0.5 0.95901620388 0.95901620388 0.5 
0.5 0.5 0.5 0.818359375 0.5 0.5 0.5 0.5 0.95901620388 
1.1573349237 0.5 0.5 0.818359375 0.818359375 0.5 0.95901620388 0.5 0.5 
0.5 0.5 0.818359375 0.818359375 1.1573349237 0.95901620388 0.95901620388 0.95901620388 0.818359375 
0.818359375 0.5 0.5 0.5 0.5 0.5 0.5 0.5 0.5 
0.818359375 0.5 0.5 0.5 0.95901620388 0.818359375 0.5 0.5 0.5 
0.5 0.5 0.5 0.5 0.5 0.5 0.5 0.95901620388 0.5 
0.5 0.818359375 0.5 0.95901620388 0.5 0.5 0.5 0.5 0.5 
0.818359375 0.95901620388 1.2607237101 1.2607237101 0.5 1.1573349237 1.2607237101 0.818359375 0.95901620388 
0.818359375 0.5 0.5 0.818359375 0.5 0.5 0.5 0.818359375 0.5 
0.5 0.5 0.5 0.5 0.818359375 0.5 0.5 0.5 0.5 
0.818359375 0.5 0.5 0.5 0.95901620388 0.5 0.818359375 0.5 0.818359375 
0.5 0.5 0.5 0.5 0.5 0.818359375 0.5 0.5 0.5 
0.5 0.5 0.5 0.818359375 0.818359375 0.818359375 0.818359375 0.818359375 0.818359375 
0.818359375 0.95901620388 0.95901620388 0.818359375 0.5 0.5 0.5 0.95901620388 0.818359375 
0.5 0.818359375 0.818359375 0.818359375 0.5 0.95901620388 0.818359375 1.2921733856 0.818359375 
0.5 0.5 0.5 0.5 0.5 0.5 0.5 0.5 0.5 
0.5 0.5 0.5 0.5 0.5 0.5 0.818359375 0.5 0.5 
0.5 0.818359375 0.5 0.818359375 0.5 0.818359375 0.5 0.818359375 0.818359375 
0.5 0.5 0.95901620388 0.5 0.5 0.818359375 0.5 0.95901620388 0.818359375 
0.5 0.5 0.5 0.5 0.5 0.5 0.5 0.818359375 0.818359375 
0.5 0.5 0.5 0.818359375 0.95901620388 0.818359375 0.818359375 0.5 0.5 
0.818359375 0.818359375 0.5 0.5 0.95901620388 1.2921733856 0.5 0.95901620388 0.5 
0.95901620388 0.5 0.5 0.5 0.5 0.5 0.5 0.5 0.5 
0.5 0.5 0.5 0.5 0.5 0.5 0.5 0.5 0.5 
0.5 0.5 0.5 0.5 0.5 0.5 0.5 0.5 0.95901620388 
0.5 0.5 0.818359375 0.5 0.95901620388 0.95901620388 0.818359375 0.5 0.818359375 
0.818359375 0.95901620388 0.5 0.5 0.818359375 0.818359375 0.5 0.5 0.5 
0.5 0.5 0.5 0.818359375 0.818359375 0.818359375 0.818359375 0.818359375 0.5 
0.5 1 1.2607237101 0.5 0.5 0.5 0.5 0.5 0.5 
0.5 0.5 0.5 0.5 0.5 0.5 0.5 0.5 0.5 
0.5 0.5 0.5 0.5 0.5 0.818359375 0.5 0.5 0.818359375 
0.95901620388 0.5 0.5 0.5 0.5 0.818359375 0.5 0.818359375 0.818359375 
0.818359375 0.5 0.5 0.5 0.5 0.818359375 0.5 0.5 0.95901620388 
0.818359375 0.818359375 0.5 0.95901620388 0.818359375 1.1573349237 0.95901620388 0.5 0.5 
0.5 0.818359375 1.2607237101 0.95901620388 0.818359375 0.818359375 0.818359375 0.818359375 0.818359375 
0.5 0.95901620388 0.5 0.5 1.2607237101 0.818359375 0.5 0.818359375 0.818359375 
0.95901620388 0.95901620388 0.5 0.818359375 0.818359375 0.818359375 0.818359375 0.5 0.5 
0.5 0.5 0.5 0.5 0.5 0.5 0.5 0.5 0.818359375 
0.818359375 0.5 0.5 0.5 0.5 0.818359375 0.95901620388 0.5 0.5 
0.818359375 0.5 0.5 0.5 0.5 0.818359375 0.818359375 0.818359375 0.818359375 
0.818359375 0.818359375 0.5 0.818359375 0.5 0.5 0.5 0.5 0.5 
0.818359375 0.5 0.95901620388 0.818359375 0.5 0.95901620388 1.1573349237 0.5 0.5 
0.5 0.95901620388 0.5 0.818359375 0.818359375 0.818359375 0.818359375 0.5 0.95901620388 
0.818359375 0.5 0.818359375 0.5 0.818359375 0.5 0.5 0.5 0.5 
0.5 0.5 0.5 0.5 0.5 0.5 0.5 0.5 0.5 
0.5 0.5 0.5 0.95901620388 0.5 0.5 0.5 0.5 0.5 
0.5 0.95901620388 0.5 0.5 0.5 0.5 0.5 0.818359375 0.5 
0.5 0.5 0.818359375 0.818359375 0.818359375 0.5 0.95901620388 0.818359375 0.5 
0.5 0.5 0.5 0.5 0.818359375 0.818359375 0.5 1 0.5 
0.95901620388 0.5 0.818359375 0.5 0.5 0.5 0.5 0.5 0.818359375 
0.818359375 0.818359375 0.818359375 0.5 0.818359375 0.5 0.5 0.5 0.5 
0.5 0.5 0.5 0.5 0.5 0.5 0.5 0.5 0.5 
0.5 0.5 0.818359375 0.95901620388 0.5 0.5 0.5 0.5 0.5 
0.5 0.5 0.5 0.818359375 0.818359375 0.818359375 0.5 0.818359375 0.818359375 
1.2607237101 1.1573349237 0.818359375 0.5 0.818359375 0.5 0.5 1.2607237101 0.5 
0.5 0.5 0.5 0.5 0.818359375 0.5 0.5 0.5 0.5 
0.5 0.5 0.5 0.5 0.5 0.5 0.5 0.5 0.5 
0.5 0.5 0.5 0.5 0.5 0.5 0.5 0.5 0.95901620388 
0.5 0.5 0.5 0.5 0.5 0.5 0.5 0.5 0.5 
0.5 0.5 0.818359375 0.5 0.5 0.5 0.5 0.818359375 0.5 
0.5 0.5 0.5 0.5 0.5 0.818359375 0.818359375 1.2607237101 0.5 
0.5 0.818359375 0.5 0.5 0.5 0.5 0.5 0.5 0.5 
0.5 0.5 0.5 0.5 0.5 0.5 0.5 0.5 0.5 
0.5 0.5 0.5 0.5 0.5 0.818359375 0.5 0.95901620388 0.5 
0.5 0.5 0.5 0.5 0.5 0.5 0.5 0.5 0.818359375 
0.818359375 0.5 0.5 0.818359375 0.5 0.5 0.5 0.818359375 0.818359375 
0.5 0.5 0.818359375 0.95901620388 0.5 1.2607237101 0.95901620388 0.5 0.95901620388 
0.818359375 0.818359375 0.5 0.5 0.5 0.5 0.5 0.5 0.5 
0.5 0.5 0.5 0.5 0.5 0.5 0.5 0.5 0.818359375 
0.5 0.5 0.5 0.5 0.5 0.5 0.5 0.5 0.5 
0.5 0.818359375 0.5 0.5 0.5 0.5 0.5 0.5 0.5 
0.5 0.5 0.5 0.818359375 0.818359375 0.818359375 0.95901620388 0.5 1.2607237101 
0.95901620388 0.5 0.818359375 0.95901620388 0.95901620388 0.818359375 0.818359375 0.5 0.818359375 
0.818359375 0.5 0.5 0.95901620388 0.5 0.5 0.5 0.5 0.5 
0.5 0.5 0.5 0.5 0.5 0.5 0.5 0.5 0.5 
0.5 0.5 0.5 0.5 0.5 0.5 0.5 0.5 0.818359375 
0.5 0.5 0.95901620388 0.95901620388 0.95901620388 0.5 0.5 0.95901620388 0.5 
0.5 0.818359375 0.5 0.5 0.5 0.818359375 0.5 0.818359375 0.5 
0.95901620388 0.5 0.818359375 0.818359375 0.5 0.95901620388 0.5 0.5 0.5 
0.5 0.95901620388 0.5 0.5 0.5 0.5 0.5 0.5 0.5 
0.5 0.5 0.818359375 0.818359375 0.5 0.5 0.5 0.5 0.5 
0.5 0.5 0.5 0.5 0.5 0.5 0.5 0.5 0.5 
0.818359375 0.5 0.5 0.818359375 0.5 1.2921733856 0.95901620388 0.95901620388 0.5 
0.818359375 0.818359375 0.5 0.5 0.5 0.818359375 0.818359375 0.818359375 0.5 
0.5 0.5 0.5 0.5 0.5 0.5 0.5 0.5 0.5 
0.818359375 0.818359375 0.95901620388 0.5 0.818359375 0.5 0.818359375 0.5 0.5 
0.5 0.5 0.5 0.5 0.5 0.5 0.5 0.5 0.5 
1.2921733856 0.818359375 1.2921733856 1.2607237101 0.95901620388 0.818359375 0.5 0.5 0.5 
0.5 0.5 0.5 0.5 0.5 0.5 0.5 0.5 0.5 
0.818359375 0.5 0.5 0.5 0.818359375 0.818359375 0.5 0.5 0.5 
0.5 0.5 1.2607237101 0.818359375 0.818359375 0.818359375 0.5 0.95901620388 1.1573349237 
0.95901620388 0.818359375 0.95901620388 1.1573349237 0.95901620388 0.818359375 0.5 0.5 0.5 
0.5 0.5 0.5 0.5 0.5 0.5 0.818359375 0.5 0.5 
0.5 0.818359375 0.5 0.5 0.5 0.5 0.5 0.5 0.5 
0.5 0.5 0.5 0.95901620388 0.5 0.818359375 0.818359375 0.818359375 0.818359375 
0.818359375 0.5 0.5 0.5 0.5 0.5 0.5 0.5 0.5 
0.5 0.5 0.5 0.5 0.818359375 0.5 0.5 0.5 0.818359375 
0.5 0.5 0.818359375 0.5 0.5 0.5 0.5 0.5 0.5 
0.5 0.818359375 0.818359375 1.2607237101 0.95901620388 0.818359375 0.818359375 0.818359375 0.5 
0.818359375 0.818359375 0.818359375 0.818359375 0.5 0.5 0.5 0.818359375 0.818359375 
0.5 0.5 0.5 0.5 0.5 0.5 0.5 0.5 0.5 
0.5 0.5 0.5 0.5 0.5 0.5 0.5 0.5 0.5 
0.5 0.5 0.5 0.5 0.5 0.5 1.2607237101 0.95901620388 1.2921733856 
1.2921733856 0.818359375 0.5 0.5 0.95901620388 0.95901620388 0.818359375 0.818359375 0.5 
0.5 0.5 0.5 0.5 0.5 0.5 0.5 0.5 0.5 
0.5 0.5 0.5 0.5 0.5 0.5 0.5 0.5 0.5 
0.5 0.5 0.818359375 0.5 0.5 0.5 0.818359375 0.818359375 0.5 
0.5 0.5 0.5 0.5 0.5 0.95901620388 0.818359375 0.5 0.95901620388 
0.5 0.818359375 0.818359375 0.5 0.5 0.5 0.5 0.5 0.5 
0.5 0.5 0.5 0.5 0.5 0.5 1.2921733856 0.5 0.818359375 
0.5 0.818359375 0.818359375 0.818359375 0.5 0.818359375 0.818359375 0.818359375 0.818359375 
0.5 0.95901620388 0.818359375 0.5 0.5 0.5 0.5 0.5 0.5 
0.5 0.5 0.5 0.5 0.5 0.5 0.5 0.5 0.5 
0.5 0.5 0.5 0.5 0.5 0.5 0.5 0.818359375 0.5 
0.5 0.5 0.5 0.5 0.5 0.5 0.5 0.5 0.5 
0.818359375 0.5 1.2607237101 0.95901620388 0.818359375 0.5 0.5 0.5 0.5 
0.5 0.5 0.5 0.5 1.5 1 0.5 0.5 0.5 
0.818359375 0.5 0.818359375 0.5 0.5 0.818359375 0.5 0.818359375 0.818359375 
0.818359375 0.818359375 0.5 0.5 0.5 0.95901620388 0.5 0.5 0.5 
0.5 0.5 0.5 0.5 0.5 0.5 0.5 0.5 0.818359375 
0.5 0.818359375 0.5 0.5 0.5 0.5 0.818359375 0.5 1.2607237101 
0.95901620388 0.5 0.5 0.818359375 0.5 0.5 0.818359375 0.5 0.5 
0.5 0.95901620388 0.818359375 0.818359375 0.818359375 0.5 0.5 0.95901620388 0.5 
0.5 0.818359375 0.5 0.5 0.5 0.5 0.818359375 0.818359375 0.5 
0.5 0.5 0.5 0.5 0.818359375 0.5 0.5 0.5 0.5 
0.5 0.5 0.5 0.5 0.5 0.5 0.5 0.5 0.5 
0.818359375 0.5 0.5 0.5 0.5 0.5 0.818359375 0.5 1.1573349237 
0.5 1.2607237101 0.5 0.5 0.5 0.5 0.5 0.5 1.5295176506 
1.5295176506 1.2607237101 0.818359375 0.5 0.5 0.818359375 0.818359375 0.818359375 0.95901620388 
0.5 0.818359375 0.818359375 0.818359375 0.5 0.818359375 0.5 0.5 0.5 
0.818359375 0.5 0.5 0.5 0.5 0.5 0.5 0.5 0.5 
0.5 0.5 0.5 0.5 0.5 0.5 0.5 0.5 0.5 